ITEM: TIMESTEP
10000
ITEM: NUMBER OF ATOMS
1337
ITEM: BOX BOUNDS pp pp pp
-59.9641 59.9641
-59.9641 59.9641
-59.9641 59.9641
ITEM: ATOMS id type mol x y z mux muy muz mass diameter 
1 2 1 1.99582 0.460717 3.37322 0.234171 0.177586 0.0602235 30.026 12.7 
2 2 1 2.06407 -0.912608 4.53626 -0.0287969 0.0874387 0.285526 30.026 12.7 
3 2 1 1.94922 -2.35749 3.61363 0.243745 -0.150665 0.0888176 30.026 12.7 
4 2 1 0.522154 -2.33542 2.67071 -0.0940542 -0.253116 0.130714 30.026 12.7 
5 3 1 0.645112 -0.934814 1.58411 0.00818436 -0.0277031 -0.298606 44.053 12.7 
6 4 1 0.686465 0.454191 2.45901 0 0 0 15.999 12.7 
7 1 0 -8.25573 -6.46723 -16.541 0.366243 0.0598168 0.393661 18.01 5 
8 1 0 -7.24792 -13.7509 -4.23341 0.476503 -0.0421319 0.252688 18.01 5 
9 1 0 -1.85614 -9.82198 -11.071 -0.204879 -0.366002 -0.341684 18.01 5 
10 1 0 -8.98848 -10.7387 -16.6736 -0.477871 0.0954637 -0.234962 18.01 5 
11 1 0 8.67725 -17.3433 -8.1152 -0.023594 0.407985 -0.354503 18.01 5 
12 1 0 0.774895 -14.9568 -13.7286 -0.422151 0.313272 -0.127789 18.01 5 
13 1 0 8.24302 -17.7119 -5.07544 0.280905 -0.263489 -0.37993 18.01 5 
14 1 0 -2.29535 -16.5712 -14.3106 -0.32732 -0.1578 -0.400801 18.01 5 
15 1 0 4.82271 -13.2511 -9.75035 -0.157342 0.516088 -0.039725 18.01 5 
16 1 0 11.3914 -10.0395 -11.5163 -0.265402 -0.468476 0.0526605 18.01 5 
17 1 0 1.59265 -11.7607 -15.9373 0.414526 -0.261519 -0.229035 18.01 5 
18 1 0 -9.17791 -8.05412 -5.2488 0.515281 -0.143442 0.0811809 18.01 5 
19 1 0 -1.70246 -11.3203 -17.7968 0.525096 0.128192 -0.0228359 18.01 5 
20 1 0 -10.0677 -14.2603 -10.0459 -0.45275 -0.272836 -0.115148 18.01 5 
21 1 0 -4.16068 -8.23917 -14.5144 0.169438 -0.490601 0.152588 18.01 5 
22 1 0 3.14655 -3.51251 -13.7622 -0.341024 0.147731 -0.39314 18.01 5 
23 1 0 6.37717 -8.59657 -17.0131 0.240238 -0.446927 0.187677 18.01 5 
24 1 0 8.2854 -11.295 -8.97975 0.193791 0.119304 -0.490808 18.01 5 
25 1 0 -0.711989 -15.6293 -9.74256 -0.0420709 -0.49515 0.213864 18.01 5 
26 1 0 5.46861 -6.74578 -11.0617 -0.279139 -0.194193 0.420775 18.01 5 
27 1 0 10.346 -8.6558 -8.35169 -0.280448 0.439946 0.143099 18.01 5 
28 1 0 14.218 -11.6026 -3.28073 0.0115764 -0.47014 0.267423 18.01 5 
29 1 0 -10.8848 -2.02105 -6.1009 -0.4685 0.162822 -0.216049 18.01 5 
30 1 0 -12.1731 -8.21848 -11.5814 -0.367608 -0.065907 -0.39141 18.01 5 
31 1 0 2.43382 -8.18751 -16.5505 0.00646617 0.517559 -0.157391 18.01 5 
32 1 0 -7.83608 -10.8648 -6.13172 0.0464887 -0.320921 -0.433046 18.01 5 
33 1 0 3.38784 -13.7866 -15.1119 0.134304 -0.407825 0.329123 18.01 5 
34 1 0 9.24028 -16.4281 -11.381 -0.531776 -0.0904274 -0.0414493 18.01 5 
35 1 0 6.80962 -15.3193 -12.7674 -0.485561 0.000856123 -0.23856 18.01 5 
36 1 0 3.86374 -14.658 -12.3149 -0.25449 0.0382912 0.475867 18.01 5 
37 1 0 1.6601 -8.11089 -12.8546 0.535714 0.0115267 0.0745583 18.01 5 
38 1 0 15.5273 -6.25353 -11.5328 -0.416164 -0.335261 0.0841908 18.01 5 
39 1 0 8.38447 -6.78899 -14.7843 0.265434 0.265732 0.389374 18.01 5 
40 1 0 -20.3935 2.30428 4.42555 0.50867 -0.183644 -0.0145021 18.01 5 
41 1 0 -6.76753 -3.65386 -15.0323 -0.225116 -0.376894 0.316156 18.01 5 
42 1 0 -7.65348 -9.27902 -8.9792 -0.411246 0.00987059 -0.351369 18.01 5 
43 1 0 -1.54115 -12.99 -14.066 0.0874181 0.318411 0.428548 18.01 5 
44 1 0 -1.56336 -2.98769 -17.8119 0.439136 0.293 0.118288 18.01 5 
45 1 0 -5.93063 3.1295 -19.2928 0.304092 0.441895 0.0702666 18.01 5 
46 1 0 -0.981028 -7.23262 -16.3795 -0.341266 -0.167063 -0.385108 18.01 5 
47 1 0 8.1387 -9.9207 -11.5422 -0.214098 -0.0353801 -0.495572 18.01 5 
48 1 0 13.7037 3.0798 -15.0291 0.181161 0.0537278 0.506927 18.01 5 
49 1 0 14.9101 0.155433 -13.0281 -0.284312 0.216577 0.406131 18.01 5 
50 1 0 9.59447 -4.92407 -12.6815 0.253649 0.417594 0.23229 18.01 5 
51 1 0 -16.6506 -4.21695 -11.3592 -0.0677904 0.412821 -0.343022 18.01 5 
52 1 0 -7.75064 4.44098 -22.0012 -0.284551 0.446239 0.112173 18.01 5 
53 1 0 -4.72597 -12.5255 -15.804 0.35542 0.336831 -0.230006 18.01 5 
54 1 0 -8.92927 -0.989811 -19.1773 0.258673 0.306706 -0.362906 18.01 5 
55 1 0 0.571382 -6.78882 -20.0041 -0.342895 0.332903 -0.253535 18.01 5 
56 1 0 3.9622 1.99743 -14.2436 0.0516624 0.355267 0.404719 18.01 5 
57 1 0 -8.03798 4.73255 -15.1435 0.0471949 -0.468902 -0.265677 18.01 5 
58 1 0 -3.80097 3.18221 -8.19293 -0.211166 -0.395392 -0.302911 18.01 5 
59 1 0 12.1683 8.67119 -14.6579 0.15898 -0.232965 -0.461664 18.01 5 
60 1 0 12.3633 0.182818 -15.4177 0.304451 0.364702 0.25881 18.01 5 
61 1 0 15.2955 -5.16267 -14.5249 0.232891 0.389571 0.29441 18.01 5 
62 1 0 -13.7684 2.48569 -16.9087 0.340049 0.236929 -0.347725 18.01 5 
63 1 0 -11.4248 2.86861 -19.5651 -0.0699703 -0.53628 -0.0137419 18.01 5 
64 1 0 -4.18662 -0.0370984 -11.6706 0.0247844 0.538789 0.0421122 18.01 5 
65 1 0 -14.3504 -3.49926 -16.2521 0.184209 -0.344154 0.374575 18.01 5 
66 1 0 -2.97192 -5.46595 -18.3761 -0.252826 0.478267 -0.00461204 18.01 5 
67 1 0 -2.32955 -3.87225 -11.9564 -0.488393 -0.232331 0.01325 18.01 5 
68 1 0 1.1862 -3.75948 -18.7356 0.522513 -0.0379527 0.134984 18.01 5 
69 1 0 -3.33298 0.826438 -20.4637 -0.336918 -0.422175 -0.0305837 18.01 5 
70 1 0 17.2705 8.99444 -5.70184 0.335757 0.0448042 0.421831 18.01 5 
71 1 0 16.2983 5.56339 -10.6494 0.279618 0.219544 0.407793 18.01 5 
72 1 0 12.2574 1.09919 -12.2878 -0.530835 -0.0809488 -0.065899 18.01 5 
73 1 0 -13.0056 -2.82406 -11.858 -0.492866 -0.0112707 -0.222793 18.01 5 
74 1 0 -9.54661 0.0970166 -8.17346 0.0509123 0.41359 0.34501 18.01 5 
75 1 0 -6.42951 8.85619 -13.0223 -0.285932 0.458928 -0.017571 18.01 5 
76 1 0 -11.0054 5.12692 -13.3329 0.232518 0.0381618 0.486991 18.01 5 
77 1 0 -2.06617 0.00982473 -17.1815 0.205969 0.330939 0.37515 18.01 5 
78 1 0 -3.97448 5.04709 -21.0731 -0.211601 0.497218 -0.0260831 18.01 5 
79 1 0 -2.35105 2.86854 -16.2822 0.129062 0.488195 -0.194139 18.01 5 
80 1 0 9.14243 -1.88241 -7.41514 0.149174 0.0402568 -0.518467 18.01 5 
81 1 0 10.6814 2.51791 -14.5058 0.0632709 0.459959 -0.277697 18.01 5 
82 1 0 16.7687 7.76859 -8.68799 -0.233228 0.112102 0.475098 18.01 5 
83 1 0 9.4618 5.05055 -16.1584 -0.370407 0.369116 -0.138684 18.01 5 
84 1 0 -15.5082 3.52772 -8.08808 0.229565 -0.476166 -0.115095 18.01 5 
85 1 0 -12.5653 5.44927 -16.1502 0.401817 0.361802 -0.0179971 18.01 5 
86 1 0 -9.57864 4.22531 -1.14347 0.172233 -0.505642 0.0856894 18.01 5 
87 1 0 -8.79469 5.16657 -11.3364 0.273797 -0.353916 0.304072 18.01 5 
88 1 0 -10.6186 0.9082 -17.3987 0.266342 -0.130166 0.452548 18.01 5 
89 1 0 0.787736 2.03806 -17.5881 0.294806 0.291602 -0.347475 18.01 5 
90 1 0 -2.59282 6.15275 -14.0994 0.177102 -0.402216 -0.315496 18.01 5 
91 1 0 -1.74577 3.10079 -12.9785 0.429275 -0.292325 -0.151492 18.01 5 
92 1 0 5.32264 -1.0737 -19.7288 -0.320361 0.397056 -0.17999 18.01 5 
93 1 0 8.56047 0.296617 -15.3155 0.408062 0.0280726 0.354088 18.01 5 
94 1 0 1.73525 4.51199 -19.3277 0.431263 0.326528 0.00849348 18.01 5 
95 1 0 -5.04347 -3.23902 -17.2205 -0.492751 -0.183095 0.12788 18.01 5 
96 1 0 -7.94977 1.38051 -20.4199 0.270211 0.445247 -0.146363 18.01 5 
97 1 0 -3.37971 -8.69276 -17.4318 -0.309659 -0.344044 -0.280047 18.01 5 
98 1 0 2.25188 9.65862 -18.4176 0.328718 0.231845 0.361764 18.01 5 
99 1 0 3.05418 6.49446 -17.9335 0.0262561 0.289429 0.456314 18.01 5 
100 1 0 -5.11245 -0.0837467 -17.4109 0.363756 -0.397048 -0.0521106 18.01 5 
101 1 0 0.206252 14.6014 -14.266 0.101745 -0.0959496 -0.522611 18.01 5 
102 1 0 7.24028 9.98007 -14.7199 -0.0743291 0.488646 0.219957 18.01 5 
103 1 0 7.45418 7.24513 -8.16724 -0.386732 0.373162 -0.0622042 18.01 5 
104 1 0 7.62553 8.64338 -11.1035 0.301288 -0.366328 -0.260212 18.01 5 
105 1 0 17.5172 8.87014 -2.72612 -0.00495607 -0.0576226 0.5379 18.01 5 
106 1 0 -18.7921 8.17223 -6.00329 0.201002 0.232145 0.445408 18.01 5 
107 1 0 -6.97804 1.98954 -16.4086 0.383552 -0.167084 -0.343004 18.01 5 
108 1 0 -8.66426 7.70179 0.306838 0.173751 0.410388 0.306714 18.01 5 
109 1 0 -10.1595 11.8821 -12.5384 -0.223218 0.146031 0.47067 18.01 5 
110 1 0 -10.5498 10.9204 -9.58928 -0.168158 -0.14439 0.493513 18.01 5 
111 1 0 -5.65689 5.82459 -13.0809 -0.215198 0.302667 0.3934 18.01 5 
112 1 0 0.137633 7.97401 -16.9709 -0.291545 -0.0266175 -0.454944 18.01 5 
113 1 0 0.150557 5.38901 -12.4159 -0.515023 -0.102826 0.129843 18.01 5 
114 1 0 13.4213 -7.72046 -15.7939 0.249701 0.444145 0.18184 18.01 5 
115 1 0 -9.04079 3.84298 -17.9759 -0.380275 -0.342103 -0.176175 18.01 5 
116 1 0 0.0811496 5.00225 -15.9424 0.537273 0.0498069 0.0392211 18.01 5 
117 1 0 -11.7752 8.27626 -14.364 0.157966 -0.172127 -0.487955 18.01 5 
118 1 0 -6.61097 2.75097 -12.9527 -0.519172 -0.142581 0.0530298 18.01 5 
119 1 0 -3.16804 14.3307 -14.5471 0.19087 -0.505754 0.0215001 18.01 5 
120 1 0 -11.8505 13.9961 -5.10443 0.38658 0.367138 -0.0919064 18.01 5 
121 1 0 -8.35406 17.8539 -7.07996 -0.361236 -0.402672 -0.00672215 18.01 5 
122 1 0 -7.83817 11.8987 -7.27721 0.338266 0.079383 -0.414675 18.01 5 
123 1 0 8.36904 11.5511 -10.1234 -0.0971596 -0.439739 0.299784 18.01 5 
124 1 0 5.32391 10.4416 -10.0099 0.0302044 -0.441424 -0.311309 18.01 5 
125 1 0 9.55944 13.0263 -7.72559 -0.314313 0.28116 0.338877 18.01 5 
126 1 0 11.2319 12.4063 -10.2391 -0.448342 0.0576131 0.29724 18.01 5 
127 1 0 5.40346 5.15814 -19.2369 -0.497113 -0.101079 0.187998 18.01 5 
128 1 0 -10.3757 -8.37486 -17.6893 0.119667 0.52634 -0.0364242 18.01 5 
129 1 0 -4.08366 -14.5737 -12.1327 0.347477 0.260733 -0.322427 18.01 5 
130 1 0 -4.20339 -11.251 -12.5286 -0.453183 0.0562062 0.290081 18.01 5 
131 1 0 -7.01098 -14.9121 -10.4167 -0.0565523 0.373192 -0.38757 18.01 5 
132 1 0 7.60103 -14.7892 -9.07974 -0.199836 0.454358 0.215187 18.01 5 
133 1 0 4.70969 -18.783 -8.9426 -0.191449 0.0451842 0.503971 18.01 5 
134 1 0 5.10847 -11.5845 -12.2949 -0.262592 0.102984 -0.46165 18.01 5 
135 1 0 -1.79203 -13.06 -11.1134 -0.177428 0.157459 0.486217 18.01 5 
136 1 0 0.739465 -10.9797 -12.507 0.313976 0.440059 0.0211674 18.01 5 
137 1 0 -0.193094 -14.7853 -5.55295 -0.340085 -0.0614122 -0.416235 18.01 5 
138 1 0 17.2898 -12.9701 -7.77134 -0.100203 -0.454225 0.27626 18.01 5 
139 1 0 -13.1136 0.516135 -20.0797 -0.389015 -0.375285 0.0225728 18.01 5 
140 1 0 -7.16426 -12.3955 -14.2122 0.114278 -0.346593 -0.399368 18.01 5 
141 1 0 -5.36537 -8.10295 -7.69336 -0.484416 -0.146469 -0.191232 18.01 5 
142 1 0 -4.819 -17.1692 -5.79441 -0.11782 -0.238549 0.471056 18.01 5 
143 1 0 -1.20604 -7.48305 -12.8728 0.493089 -0.220703 0.0288792 18.01 5 
144 1 0 0.8053 -9.44298 -18.8312 0.0956841 0.428609 -0.315943 18.01 5 
145 1 0 0.426328 -10.1696 -8.92943 -0.1704 -0.497252 -0.128006 18.01 5 
146 1 0 4.52925 -4.31408 -7.45146 -0.500296 0.151786 0.139091 18.01 5 
147 1 0 6.60431 -18.6178 -11.0807 -0.34526 -0.282544 0.306015 18.01 5 
148 1 0 5.68404 -15.8845 -6.64406 0.436855 -0.111595 0.298974 18.01 5 
149 1 0 6.22853 -13.2648 -16.0603 0.219919 0.464849 -0.168023 18.01 5 
150 1 0 -10.8934 -1.43188 -2.98799 -0.520059 -0.0659382 -0.133684 18.01 5 
151 1 0 -14.5578 2.58833 -4.99538 -0.173518 0.0141183 0.512224 18.01 5 
152 1 0 -10.5152 -5.00552 -12.2718 -0.0470328 0.146499 -0.518659 18.01 5 
153 1 0 -1.56355 -12.1091 -3.98699 0.0869749 0.533326 0.0260782 18.01 5 
154 1 0 -4.7791 -10.4386 -1.66496 -0.165526 0.151911 0.492144 18.01 5 
155 1 0 1.63148 -5.46737 -15.4624 -0.519621 0.0810786 0.12689 18.01 5 
156 1 0 3.50109 -3.75093 -17.182 0.391285 -0.333027 0.169321 18.01 5 
157 1 0 5.45293 -5.82476 -16.6828 0.377598 -0.38111 -0.0696845 18.01 5 
158 1 0 4.09324 -6.55872 -13.8514 0.134983 0.523128 0.028248 18.01 5 
159 1 0 9.5874 -7.69269 -17.5418 -0.429739 0.304536 -0.123545 18.01 5 
160 1 0 14.2318 -8.79203 -9.88643 0.216011 -0.401605 0.29109 18.01 5 
161 1 0 -14.8135 -6.39472 -11.7169 -0.324017 -0.001104 0.433235 18.01 5 
162 1 0 -3.94284 -5.67698 -7.57855 0.0602202 -0.529005 -0.0959588 18.01 5 
163 1 0 -7.91329 -6.41462 -13.5361 0.0966272 0.184987 0.499123 18.01 5 
164 1 0 0.491197 -5.04538 -11.5117 -0.498659 0.198435 -0.0681473 18.01 5 
165 1 0 -3.09784 -5.53559 -14.535 0.307136 -0.407842 0.178924 18.01 5 
166 1 0 -5.93959 -9.94056 -16.9239 -0.513699 -0.0329662 0.166457 18.01 5 
167 1 0 5.77172 0.250074 -16.9664 0.142797 -0.364721 0.373187 18.01 5 
168 1 0 13.6473 -15.7599 -8.07604 -0.086142 0.292365 -0.446971 18.01 5 
169 1 0 11.3211 -5.31194 -16.4714 -0.200376 -0.170856 -0.472587 18.01 5 
170 1 0 -1.64477 -10.8089 -1.01647 -0.195756 0.406655 -0.298316 18.01 5 
171 1 0 6.39475 -4.06203 -12.7895 0.300122 -0.345845 0.288096 18.01 5 
172 1 0 -14.276 -1.82742 -18.5239 -0.152731 -0.189705 0.48308 18.01 5 
173 1 0 -3.52334 -2.11801 -20.0022 0.14614 -0.238137 0.463265 18.01 5 
174 1 0 -7.44067 -4.07954 -11.8079 0.0391063 0.363954 0.398358 18.01 5 
175 1 0 -11.0907 -2.39197 -17.6121 0.32599 0.206449 -0.379197 18.01 5 
176 1 0 -4.91806 -2.76236 -10.8592 -0.0983118 0.529941 -0.0466767 18.01 5 
177 1 0 7.82146 -10.8707 -15.3425 0.267708 -0.11971 0.454624 18.01 5 
178 1 0 11.1705 -2.29739 -16.7342 0.477775 0.196169 0.161026 18.01 5 
179 1 0 5.77376 -1.8269 -14.5641 0.125959 -0.203224 0.485299 18.01 5 
180 1 0 -7.59928 -3.89421 -18.6118 -0.479248 -0.205869 -0.143599 18.01 5 
181 1 0 10.2602 -0.935944 -12.66 -0.298286 -0.447249 -0.0606184 18.01 5 
182 1 0 13.2654 -8.24448 -12.9918 -0.179666 -0.493897 0.128322 18.01 5 
183 1 0 -17.7441 1.90167 -11.3867 0.019721 -0.193953 0.504653 18.01 5 
184 1 0 -16.0445 -2.24758 -13.4778 -0.114979 0.425839 -0.313245 18.01 5 
185 1 0 -10.0742 -1.99565 -12.3005 -0.397696 -0.33451 0.150405 18.01 5 
186 1 0 -6.07764 -0.543109 -14.3079 0.523479 -0.0466707 0.128346 18.01 5 
187 1 0 -5.44802 -6.51864 -16.4386 0.480803 -0.244209 0.0432636 18.01 5 
188 1 0 -0.370411 -7.20619 -8.94354 0.297583 -0.342225 0.294971 18.01 5 
189 1 0 1.54426 2.15079 -11.274 -0.180999 0.306109 0.407698 18.01 5 
190 1 0 3.60027 -9.96907 -14.5005 -0.357388 0.0937624 -0.395175 18.01 5 
191 1 0 9.97832 -0.123704 -9.68853 0.0735279 0.328006 -0.423895 18.01 5 
192 1 0 13.7247 -3.07424 -11.0735 -0.154352 0.338815 -0.392506 18.01 5 
193 1 0 16.7904 -3.40289 -11.5363 -0.0764022 -0.512142 0.156698 18.01 5 
194 1 0 -10.5296 6.67863 -9.40392 -0.365476 -0.0729103 -0.392164 18.01 5 
195 1 0 -12.9999 -0.010705 -14.594 -0.278103 0.0893326 -0.455368 18.01 5 
196 1 0 -13.4745 3.35141 -11.7455 0.23287 0.359467 0.330508 18.01 5 
197 1 0 -10.5388 5.75481 -20.0343 -0.457022 -0.24025 0.161529 18.01 5 
198 1 0 3.27087 0.271155 -5.27414 0.309191 0.36283 0.255805 18.01 5 
199 1 0 -1.3077 1.187 -8.55755 -0.079125 -0.465905 -0.263348 18.01 5 
200 1 0 -0.504375 -3.77749 -14.6498 -0.482171 0.207337 0.131162 18.01 5 
201 1 0 3.9285 2.25632 -18.19 0.27894 -0.448765 0.116119 18.01 5 
202 1 0 6.5424 -4.09866 -9.70943 -0.132168 -0.315141 0.419403 18.01 5 
203 1 0 9.02771 -4.6746 -18.0872 -0.281398 0.403684 -0.2248 18.01 5 
204 1 0 11.3577 4.03608 -7.21536 -0.287468 -0.427731 0.164589 18.01 5 
205 1 0 -10.2295 10.7583 -15.6598 -0.230005 0.19607 0.448704 18.01 5 
206 1 0 -8.32114 7.59685 -19.232 0.324301 -0.222353 -0.371576 18.01 5 
207 1 0 -9.7433 -2.87113 -9.15225 0.479067 0.0677179 0.242053 18.01 5 
208 1 0 0.869658 3.44157 -3.75185 0.310727 -0.441645 -0.0328488 18.01 5 
209 1 0 -7.4565 9.63222 -15.9513 -0.456879 0.20146 -0.208223 18.01 5 
210 1 0 -2.8095 7.61845 -4.91512 0.3168 0.266925 0.347951 18.01 5 
211 1 0 2.68303 -0.41968 -20.5141 -0.500054 -0.171584 -0.114829 18.01 5 
212 1 0 4.996 7.35142 -5.81043 -0.104026 0.154296 0.507989 18.01 5 
213 1 0 2.77563 6.22904 -11.7112 -0.496853 -0.0923271 -0.193116 18.01 5 
214 1 0 -1.44201 -0.610566 -13.5833 -0.537169 0.0494477 0.0410599 18.01 5 
215 1 0 5.21012 6.62803 -10.2523 -0.493071 0.0680146 -0.211981 18.01 5 
216 1 0 -16.4692 6.30708 -9.06211 0.0485546 -0.386175 -0.375756 18.01 5 
217 1 0 -7.29186 10.0944 -0.0121096 -0.121107 0.475321 -0.228219 18.01 5 
218 1 0 -10.5156 2.48551 -10.9635 0.352472 -0.401629 0.0844908 18.01 5 
219 1 0 -1.25738 9.06052 -14.6002 0.054298 -0.327887 0.426876 18.01 5 
220 1 0 -7.14793 11.6065 -11.3794 0.180826 0.233047 0.453511 18.01 5 
221 1 0 3.91684 3.2114 -8.97144 0.267945 0.46003 0.0962245 18.01 5 
222 1 0 1.78736 8.101 -14.3156 0.00618614 -0.145727 -0.520967 18.01 5 
223 1 0 -4.24381 2.8669 -11.3462 0.00404982 0.261858 -0.473387 18.01 5 
224 1 0 7.08562 3.1105 -16.8537 0.341538 -0.369517 -0.198721 18.01 5 
225 1 0 -4.94651 7.74785 -16.0085 -0.0668358 0.280656 0.457653 18.01 5 
226 1 0 -2.42662 6.10825 -11.1267 -0.435834 0.0382224 -0.318227 18.01 5 
227 1 0 -8.84074 7.32486 -14.1355 0.20017 -0.456255 -0.210817 18.01 5 
228 1 0 -8.36606 8.05391 -8.09145 -0.425869 0.0502109 -0.329842 18.01 5 
229 1 0 -4.81653 4.29299 -15.3303 -0.306372 0.200338 0.398349 18.01 5 
230 1 0 -9.27331 8.72923 -11.4884 0.153825 0.194802 -0.480699 18.01 5 
231 1 0 -14.9912 13.3711 -4.22079 0.105856 0.0263143 -0.52989 18.01 5 
232 1 0 1.98445 11.2381 -9.7395 0.419425 -0.338854 0.0440588 18.01 5 
233 1 0 4.59044 6.39046 -3.07738 0.347508 -0.0954005 0.403507 18.01 5 
234 1 0 9.88949 9.0055 -8.92692 0.0911344 -0.417311 -0.332005 18.01 5 
235 1 0 -1.71458 3.24189 -19.3172 -0.306742 -0.23869 -0.376321 18.01 5 
236 1 0 17.8521 0.252883 -6.67679 -0.234265 0.484724 -0.0533274 18.01 5 
237 1 0 13.3038 9.7733 -10.1337 -0.00223334 0.505242 -0.193409 18.01 5 
238 1 0 -0.977238 11.7258 -15.903 0.109049 -0.527319 -0.0521907 18.01 5 
239 1 0 -10.8484 7.82051 -17.375 0.251043 0.424012 -0.223321 18.01 5 
240 1 0 -12.1652 7.97798 -11.3443 0.250227 0.101954 -0.468693 18.01 5 
241 1 0 -5.33549 14.1677 -12.2281 -0.134086 0.0407395 -0.522534 18.01 5 
242 1 0 -2.58147 13.364 -11.2473 -0.252265 0.255439 0.404715 18.01 5 
243 1 0 -11.8878 16.9741 -3.57528 -0.510735 0.0741386 0.16228 18.01 5 
244 1 0 2.39999 6.04991 -8.06333 -0.491724 -0.216176 0.0644657 18.01 5 
245 1 0 3.12767 8.90509 -7.97384 -0.0650133 -0.536722 -0.0195878 18.01 5 
246 1 0 -5.07651 6.49934 -18.6165 0.195031 0.122659 0.489488 18.01 5 
247 1 0 2.96032 5.37304 -14.9883 0.516553 -0.100774 0.125296 18.01 5 
248 1 0 11.4382 10.4622 -3.60117 -0.000253846 0.395764 -0.368852 18.01 5 
249 1 0 -9.9923 -14.0293 -5.56969 0.493239 -0.217413 0.0461314 18.01 5 
250 1 0 -8.53797 -11.6693 -1.32821 0.394348 -0.31754 0.190628 18.01 5 
251 1 0 -6.70788 -9.43647 -12.2378 0.202822 0.496273 -0.0725067 18.01 5 
252 1 0 -3.3406 -15.0211 -3.89709 0.247178 0.39813 -0.270327 18.01 5 
253 1 0 -5.24289 -12.4277 -9.78064 0.0982566 -0.0375974 0.530672 18.01 5 
254 1 0 2.68295 -6.86994 -9.87794 -0.162876 0.341867 -0.386367 18.01 5 
255 1 0 -1.91858 -17.8973 -5.53653 -0.290102 0.0259901 -0.455902 18.01 5 
256 1 0 -1.36196 -14.8239 1.17297 -0.280326 -0.361928 0.288281 18.01 5 
257 1 0 3.19469 -19.3925 -6.36003 -0.350366 -0.0197459 0.411746 18.01 5 
258 1 0 3.53906 -15.7443 -2.01173 0.402504 -0.110343 -0.344232 18.01 5 
259 1 0 11.8918 -16.3767 -10.2485 -0.427507 -0.172684 -0.283018 18.01 5 
260 1 0 -4.90472 -12.1627 -7.11421 -0.0888472 0.112597 0.521641 18.01 5 
261 1 0 -11.0835 -7.2946 -14.6673 0.414069 -0.348076 0.00841196 18.01 5 
262 1 0 -10.3895 -10.386 -8.3627 -0.311423 0.15488 0.414378 18.01 5 
263 1 0 3.18764 -9.89942 -10.6053 0.180445 -0.0885309 0.502278 18.01 5 
264 1 0 -1.45727 -10.1051 -14.9987 0.486453 0.0789311 -0.223191 18.01 5 
265 1 0 3.32682 -15.4855 -8.77425 0.470504 0.0785611 -0.255215 18.01 5 
266 1 0 0.862566 -16.7672 -7.64569 0.424827 0.227793 0.245589 18.01 5 
267 1 0 -2.58367 -13.6577 -1.31131 0.484551 -0.025797 0.23922 18.01 5 
268 1 0 -7.55466 -16.0747 -6.61582 -0.0667701 0.0577091 -0.533753 18.01 5 
269 1 0 6.2335 -9.0299 -9.18729 0.535762 -0.0559174 -0.0501353 18.01 5 
270 1 0 2.10714 -19.8446 -2.44115 0.105211 0.00765333 -0.530616 18.01 5 
271 1 0 -12.2762 -1.33044 -8.86529 0.396745 -0.0890144 -0.356862 18.01 5 
272 1 0 -13.3559 -7.45816 -8.44658 0.333792 0.415625 0.0923035 18.01 5 
273 1 0 -10.9031 -11.0941 -11.2788 -0.0137806 -0.2623 0.472959 18.01 5 
274 1 0 -7.72492 -12.1021 -11.4461 0.252822 0.271604 -0.393692 18.01 5 
275 1 0 6.13311 -8.94438 -13.4161 -0.504772 0.182654 -0.0672574 18.01 5 
276 1 0 1.22461 -8.69726 -5.38138 0.212206 -0.405371 -0.288659 18.01 5 
277 1 0 0.521376 -1.43392 -16.6318 0.490967 0.114671 0.19617 18.01 5 
278 1 0 1.33876 -5.01308 -7.28732 -0.365202 0.39644 -0.046299 18.01 5 
279 1 0 5.8165 -17.1844 -2.95169 0.390119 -0.355473 -0.118858 18.01 5 
280 1 0 10.3969 -4.061 -9.89305 0.438686 -0.251498 0.192314 18.01 5 
281 1 0 11.1988 -9.4929 -15.5825 0.172866 0.419013 -0.295341 18.01 5 
282 1 0 -14.7155 -4.28076 -8.39643 0.416555 -0.261078 -0.225835 18.01 5 
283 1 0 -7.46232 -1.24661 -10.8681 -0.453509 0.291862 -0.0427399 18.01 5 
284 1 0 -6.9657 -12.1545 1.17326 0.465674 0.0673049 0.267019 18.01 5 
285 1 0 -8.68722 -1.62749 -15.904 0.535716 0.0107291 0.0746616 18.01 5 
286 1 0 -0.359622 -0.35688 -19.7674 -0.432649 -0.00718817 0.324721 18.01 5 
287 1 0 3.68383 -4.26618 -10.7421 -0.125709 0.300103 -0.432223 18.01 5 
288 1 0 8.79896 -2.84821 -14.6964 0.0973533 -0.248867 -0.470392 18.01 5 
289 1 0 6.9662 -2.64085 -17.5394 -0.297446 0.441904 -0.094486 18.01 5 
290 1 0 3.35645 -8.39304 -7.54663 -0.0482991 0.351926 -0.408039 18.01 5 
291 1 0 13.6978 -12.9956 -9.60459 0.146301 0.496896 -0.156114 18.01 5 
292 1 0 9.11365 -12.7634 -13.583 0.231437 -0.354689 0.336621 18.01 5 
293 1 0 -13.7534 1.51489 -9.23637 0.277625 -0.243671 -0.395259 18.01 5 
294 1 0 -12.2447 0.11374 -11.7387 -0.221017 -0.190394 -0.455612 18.01 5 
295 1 0 -12.2 -5.00369 -9.81199 0.455212 0.262302 -0.129076 18.01 5 
296 1 0 -8.53196 -5.06199 -2.03186 -0.0524146 0.209639 -0.495969 18.01 5 
297 1 0 -3.73307 -2.60952 -14.4482 -0.170646 -0.296378 -0.419191 18.01 5 
298 1 0 -2.95059 -6.85421 -10.5633 0.388032 -0.364955 -0.0944457 18.01 5 
299 1 0 5.65658 4.94709 -15.4744 0.367745 -0.39632 -0.0193681 18.01 5 
300 1 0 7.07671 1.31099 -9.58993 -0.312065 0.114071 -0.426948 18.01 5 
301 1 0 1.23035 -2.65124 -9.47203 0.396623 0.362253 0.0643745 18.01 5 
302 1 0 13.816 -5.4215 -9.16822 0.026211 0.364452 -0.398959 18.01 5 
303 1 0 12.2409 -7.28758 -3.82875 -0.0423874 -0.494624 0.215016 18.01 5 
304 1 0 -19.4986 -1.12966 -6.4027 0.227656 -0.418706 -0.256006 18.01 5 
305 1 0 -10.8986 1.0797 -4.89565 0.0700517 0.533537 -0.0557815 18.01 5 
306 1 0 -8.49534 -1.01352 -4.70791 -0.519093 -0.0598867 -0.140131 18.01 5 
307 1 0 -5.28407 2.59875 -5.23668 0.494966 0.0394756 -0.214782 18.01 5 
308 1 0 -1.68059 -1.15049 -10.1507 0.0526034 -0.531021 -0.0890545 18.01 5 
309 1 0 4.40311 0.288995 -11.5513 -0.519364 0.145383 0.0424991 18.01 5 
310 1 0 5.26537 3.83211 -12.3062 0.261303 0.188285 0.434684 18.01 5 
311 1 0 14.3173 4.28508 -12.3121 0.200374 0.308202 0.396916 18.01 5 
312 1 0 7.61484 -1.70809 -10.9303 -0.309458 -0.365279 0.251969 18.01 5 
313 1 0 13.0631 6.95597 -11.0393 0.183734 0.442806 0.250691 18.01 5 
314 1 0 15.9392 -2.38772 -15.4285 -0.107285 0.490868 -0.200548 18.01 5 
315 1 0 -12.8282 6.28237 -6.48926 0.437241 0.222297 0.228223 18.01 5 
316 1 0 -15.1926 -1.52688 -10.3536 -0.246915 0.308981 0.369114 18.01 5 
317 1 0 -12.2223 2.97727 -6.84026 -0.52574 0.124309 0.0287255 18.01 5 
318 1 0 -3.68182 1.32808 -14.5819 -0.0309455 0.502239 -0.198693 18.01 5 
319 1 0 -9.0523 0.956869 -13.5005 -0.203729 -0.439914 -0.240106 18.01 5 
320 1 0 -5.47969 -0.647221 -5.70032 -0.538133 0.0282279 0.0479263 18.01 5 
321 1 0 1.30563 -0.811939 -11.9678 -0.513857 0.168512 -0.0153597 18.01 5 
322 1 0 8.09975 3.26739 -13.6493 0.121755 -0.519745 0.0878708 18.01 5 
323 1 0 7.82184 9.3832 -18.3203 -0.0934862 -0.361798 -0.391208 18.01 5 
324 1 0 11.7138 0.411614 -6.60477 0.0922843 -0.522323 -0.106507 18.01 5 
325 1 0 4.85127 8.07298 -16.3567 0.46625 0.22847 0.151967 18.01 5 
326 1 0 -19.3898 5.56848 -7.34957 -0.0752919 0.525671 0.103353 18.01 5 
327 1 0 -13.4159 5.65438 -9.6022 -0.272762 0.433298 0.174741 18.01 5 
328 1 0 -14.5268 6.21863 -3.08841 -0.441368 0.289771 -0.117934 18.01 5 
329 1 0 -1.01385 5.44148 -6.08997 0.362637 0.170171 -0.363617 18.01 5 
330 1 0 4.15895 13.6952 -10.643 -0.236736 0.180062 0.451902 18.01 5 
331 1 0 -0.334062 4.01318 -9.90672 -0.193625 0.273085 0.424988 18.01 5 
332 1 0 -2.26395 2.62 -5.49364 0.316874 0.433012 -0.0690797 18.01 5 
333 1 0 9.89733 2.79739 -10.8247 -0.0225995 0.482683 -0.243285 18.01 5 
334 1 0 13.9435 5.4554 -7.94201 -0.438928 -0.272694 -0.160192 18.01 5 
335 1 0 8.39193 7.62492 -15.8389 -0.0944754 0.532493 0.0143857 18.01 5 
336 1 0 12.9521 10.8964 1.0909 -0.273941 0.286275 -0.368353 18.01 5 
337 1 0 -11.7439 9.99953 -7.06105 -0.145284 -0.235391 0.464935 18.01 5 
338 1 0 -12.1934 11.4495 -3.51161 0.45576 0.241701 -0.162926 18.01 5 
339 1 0 -0.500444 11.3853 -12.5669 -0.156994 0.506611 -0.106676 18.01 5 
340 1 0 -11.8484 17.62 1.2442 0.173103 0.508391 0.0652258 18.01 5 
341 1 0 -0.611951 6.99459 -8.79265 -0.305625 0.358734 -0.265676 18.01 5 
342 1 0 3.10855 9.16736 -11.6284 -0.176096 -0.0578827 -0.508253 18.01 5 
343 1 0 10.1283 6.07165 -9.11854 -0.111346 -0.26803 0.456556 18.01 5 
344 1 0 11.1581 10.7409 -6.66536 -0.109743 0.193831 -0.493018 18.01 5 
345 1 0 5.56562 4.99974 -7.51042 -0.0736254 0.527488 0.0949537 18.01 5 
346 1 0 13.9743 3.54564 -4.93549 0.271413 -0.433694 0.175858 18.01 5 
347 1 0 15.9871 6.43133 2.52782 0.025525 0.538577 0.044324 18.01 5 
348 1 0 -15.6078 3.91092 -14.2371 0.373699 -0.200458 -0.335927 18.01 5 
349 1 0 -5.1581 10.6139 -3.95463 -0.211408 -0.244001 -0.43411 18.01 5 
350 1 0 -9.8767 15.0153 -8.66376 -0.336257 -0.35581 0.230242 18.01 5 
351 1 0 -8.80027 14.915 -5.61104 0.477785 -0.247273 0.0570829 18.01 5 
352 1 0 -5.17491 14.1069 -6.19544 -0.412705 0.219775 0.272129 18.01 5 
353 1 0 -4.17185 11.1883 -13.59 0.114757 -0.380791 0.366756 18.01 5 
354 1 0 10.37 7.8506 -2.76401 0.313552 0.26031 -0.355815 18.01 5 
355 1 0 -1.10856 6.35378 -19.0555 -0.0356551 -0.53749 -0.0501398 18.01 5 
356 1 0 3.83869 11.5464 -5.41164 0.0460699 -0.0222629 0.538575 18.01 5 
357 1 0 13.6702 11.9779 -1.56049 0.464453 -0.194326 -0.197994 18.01 5 
358 1 0 17.598 6.66732 -0.833676 0.325482 -0.231302 0.365023 18.01 5 
359 1 0 -6.92068 13.3521 -3.93219 0.0210798 -0.11821 0.527506 18.01 5 
360 1 0 -7.22062 20.0035 -2.11012 -0.110568 0.155219 -0.506323 18.01 5 
361 1 0 -11.7671 14.6992 0.765101 0.168569 0.502371 -0.109035 18.01 5 
362 1 0 -6.37657 16.5792 -4.94476 0.0690982 0.513598 0.155317 18.01 5 
363 1 0 2.74104 10.7824 -15.7279 0.0448941 0.27549 0.463434 18.01 5 
364 1 0 6.51899 11.9001 -12.7885 -0.0967394 0.248406 0.470762 18.01 5 
365 1 0 15.3296 1.61251 -7.54506 -0.357428 0.320814 -0.249007 18.01 5 
366 1 0 1.8529 16.1934 -7.24927 0.484849 -0.218457 -0.0993919 18.01 5 
367 1 0 7.63045 12.7875 -1.22746 0.413536 -0.300293 -0.177462 18.01 5 
368 1 0 7.2948 7.1841 -20.1767 -0.118802 -0.489227 -0.19805 18.01 5 
369 1 0 6.40878 13.693 -6.99182 -0.518626 0.0158438 -0.153156 18.01 5 
370 1 0 -9.51346 -8.02898 -10.6888 -0.444062 -0.0700489 -0.30097 18.01 5 
371 1 0 -10.7212 -13.0458 0.746224 -0.46198 0.265644 0.0932123 18.01 5 
372 1 0 -8.14837 -12.6277 -8.37317 -0.383071 -0.156853 -0.348331 18.01 5 
373 1 0 3.5626 -6.82163 -0.28646 -0.233648 0.159149 0.461261 18.01 5 
374 1 0 -9.15481 -17.0622 -4.12626 0.497301 -0.203877 0.061697 18.01 5 
375 1 0 2.05461 -10.0982 0.418037 0.193411 -0.422961 0.276363 18.01 5 
376 1 0 1.1202 -16.2648 -0.422194 0.290948 0.0330375 -0.454905 18.01 5 
377 1 0 5.90453 -13.6609 -4.5308 0.00712153 0.530326 -0.1067 18.01 5 
378 1 0 1.03013 -13.7121 -11.0591 -0.520819 -0.111017 -0.095416 18.01 5 
379 1 0 11.6317 -15.5982 -5.57627 0.191968 -0.256131 0.436149 18.01 5 
380 1 0 10.5862 -13.0938 -10.8812 0.132442 -0.289691 0.437286 18.01 5 
381 1 0 -9.22819 -14.3613 -2.22575 -0.396414 0.363785 -0.0565415 18.01 5 
382 1 0 -12.5101 -10.1402 -6.29944 -0.442671 0.0855956 0.298992 18.01 5 
383 1 0 -4.11792 -15.3837 -9.31472 -0.203144 0.162005 -0.474519 18.01 5 
384 1 0 -2.70545 -15.2072 -6.9711 -0.267726 -0.0365779 -0.468685 18.01 5 
385 1 0 -9.28169 -11.9474 3.39222 0.440463 -0.218367 0.225807 18.01 5 
386 1 0 -5.42001 -13.6917 -1.9494 0.539528 0.0184893 0.0353384 18.01 5 
387 1 0 7.10802 -11.3789 -6.13671 -0.011411 0.398576 -0.365634 18.01 5 
388 1 0 5.61466 -14.0442 -1.03315 -0.271993 -0.00437085 0.467634 18.01 5 
389 1 0 10.6149 -14.2132 -8.20791 0.148206 -0.321835 0.408826 18.01 5 
390 1 0 15.2413 -6.47266 -2.52386 0.511027 0.0395439 0.173115 18.01 5 
391 1 0 10.1544 -16.0701 -2.98015 -0.226824 0.0461418 0.488982 18.01 5 
392 1 0 -14.2488 -1.50841 -6.20578 0.178991 -0.205609 -0.467299 18.01 5 
393 1 0 -19.1165 -5.70565 -6.74427 0.0842099 0.533606 0.0292295 18.01 5 
394 1 0 -9.99631 -9.98517 0.914324 0.181013 -0.444759 0.249208 18.01 5 
395 1 0 -0.239745 -8.03411 0.196509 0.434194 -0.239675 -0.216131 18.01 5 
396 1 0 3.14606 -12.4547 -1.98664 -0.362261 -0.401604 0.0127415 18.01 5 
397 1 0 3.36497 -14.3976 -5.97509 0.340493 -0.418751 -0.0373173 18.01 5 
398 1 0 9.534 -10.1518 6.85442 -0.275468 -0.43908 0.154943 18.01 5 
399 1 0 12.1651 -3.23687 -7.53317 0.237862 0.070727 0.480729 18.01 5 
400 1 0 10.1365 -11.8704 -6.13456 -0.418892 0.342346 -0.00305889 18.01 5 
401 1 0 11.6223 -13.2571 -3.79782 -0.162885 -0.087267 -0.508462 18.01 5 
402 1 0 9.0604 -9.06107 -5.35276 0.0136259 0.347769 0.414189 18.01 5 
403 1 0 -17.8696 0.0543539 -9.11377 -0.00426235 0.0650758 0.537055 18.01 5 
404 1 0 -11.0429 -6.19667 -3.17509 0.101462 -0.292124 0.443903 18.01 5 
405 1 0 -2.81475 1.82028 -2.1106 -0.484712 0.00871282 -0.240125 18.01 5 
406 1 0 -2.58542 -8.91199 -2.9815 -0.411856 0.273714 -0.219401 18.01 5 
407 1 0 -6.05266 -7.03167 2.72498 0.127544 -0.506241 0.141892 18.01 5 
408 1 0 -5.63714 -6.78914 -11.5612 0.342902 0.315585 0.274782 18.01 5 
409 1 0 0.791805 -10.4531 -2.69643 0.477658 -0.0914317 0.23699 18.01 5 
410 1 0 3.99782 -11.3997 -7.72432 -0.0506532 0.0410038 0.53706 18.01 5 
411 1 0 7.22283 -6.40535 -6.76173 -0.369283 -0.389058 -0.0703241 18.01 5 
412 1 0 10.5137 -10.4827 -2.57566 0.523326 -0.10329 -0.0902359 18.01 5 
413 1 0 15.3282 -0.622757 -9.9144 -0.00907896 -0.40652 0.356847 18.01 5 
414 1 0 -15.5535 6.9162 10.3594 -0.234727 0.305574 -0.379749 18.01 5 
415 1 0 -11.153 2.69097 -14.9228 -0.195779 0.351656 0.361511 18.01 5 
416 1 0 -2.09342 -12.1418 -8.45732 -0.00862153 -0.0237155 0.540411 18.01 5 
417 1 0 -4.65178 -7.99073 -4.74523 -0.0655117 0.303643 -0.442934 18.01 5 